<?xml version="1.0"?>
<VTKFile type="UnstructuredGrid" version="0.1" byte_order="LittleEndian" header_type="UInt32" compressor="vtkZLibDataCompressor">
  <UnstructuredGrid>
    <FieldData>
      <DataArray type="Float32" Name="TimeValue" NumberOfTuples="1" format="ascii" RangeMin="1" RangeMax="1">
        1
      </DataArray>
    </FieldData>
    <Piece NumberOfPoints="28" NumberOfCells="23">
      <PointData>
        <DataArray type="Int64" IdType="1" Name="vtkOriginalPointIds" format="ascii" RangeMin="0" RangeMax="29">
          0 4 5 1 8 19
          18 22 2 9 6 3
          10 7 13 17 16 23
          11 12 20 21 28 24
          25 29 26 27
        </DataArray>
      </PointData>
      <CellData>
        <DataArray type="Int64" IdType="1" Name="vtkOriginalCellIds" format="ascii" RangeMin="0" RangeMax="6">
          0 0 0 1 1 3
          3 3 0 1 3 2
          4 4 2 6 6 5
          0 2 4 6 5
        </DataArray>
      </CellData>
      <Points>
        <DataArray type="Float32" Name="Points" NumberOfComponents="3" format="ascii" RangeMin="0" RangeMax="3.3166247903554">
          0 0 0 0 1 0
          1 1 0 1 0 0
          1 0 0.5 1 0 1
          0 0 1 0 1 1
          2 0 0 2 0 0.5
          2 1 0 3 0 0
          3 0 0.5 3 1 0
          3 1 0.5 3 0.8 0.5
          3 0.2 0.5 1 1 1
          1 1 0.5 2 1 0.5
          2 0 1 3 0 1
          3 0.2 1 2 1 1
          3 1 1 3 0.8 1
          2 0.2 1 2 0.8 1
          <InformationKey name="L2_NORM_RANGE" location="vtkDataArray" length="2">
            <Value index="0">
              0
            </Value>
            <Value index="1">
              3.3166247904
            </Value>
          </InformationKey>
        </DataArray>
      </Points>
      <Cells>
        <DataArray type="Int64" Name="connectivity" format="ascii" RangeMin="0" RangeMax="27">
          0 1 2 3 0 3
          4 5 6 0 6 7
          1 3 8 9 4 3
          2 10 8 8 11 12
          9 8 10 13 11 11
          13 14 15 16 12 1
          7 17 18 2 2 18
          19 10 10 19 14 13
          4 9 20 5 9 12
          21 20 12 16 22 21
          18 17 23 19 19 23
          24 14 14 24 25 15
          16 15 25 22 6 5
          17 7 5 20 26 27
          23 17 20 21 22 26
          23 27 25 24 26 22
          25 27
        </DataArray>
        <DataArray type="Int64" Name="offsets" format="ascii" RangeMin="4" RangeMax="98">
          4 9 13 17 21 25
          29 35 40 44 48 52
          56 60 64 68 72 76
          80 86 90 94 98
        </DataArray>
        <DataArray type="UInt8" Name="types" format="ascii" RangeMin="7" RangeMax="9">
          9 7 9 9 9 9
          9 7 7 9 9 9
          9 9 9 9 9 9
          9 7 9 9 9
        </DataArray>
      </Cells>
    </Piece>
  </UnstructuredGrid>
</VTKFile>
